<?xml version="1.0"?>
<VTKFile type="PolyData" version="0.1" byte_order="LittleEndian" header_type="UInt32" compressor="vtkZLibDataCompressor">
  <PolyData>
    <Piece NumberOfPoints="561" NumberOfVerts="0" NumberOfLines="0" NumberOfStrips="0" NumberOfPolys="0">
      <PointData Scalars="Scalars_">
        <DataArray type="Float64" Name="Scalars_" format="ascii" RangeMin="0.004" RangeMax="0.00597801">
          0.005 0.005 0.005 0.005 0.005 0.005
          0.005 0.005 0.005 0.005 0.005 0.005
          0.005 0.005 0.005 0.005 0.005 0.005
          0.005 0.005 0.005 0.005 0.005 0.005
          0.005 0.005 0.005 0.005 0.005 0.005
          0.005 0.005 0.005 0.005 0.005 0.005
          0.005 0.005 0.005 0.005 0.005 0.005
          0.005 0.005 0.005 0.005 0.005 0.005
          0.005 0.005 0.005 0.005 0.005 0.005
          0.005 0.005 0.005 0.005 0.005 0.005
          0.005 0.005 0.005 0.005 0.005 0.005
          0.005 0.005 0.005 0.005 0.005 0.005
          0.005 0.005 0.005 0.005 0.005 0.005
          0.005 0.005 0.005 0.005 0.005 0.005
          0.005 0.005 0.005 0.005 0.005 0.005
          0.005 0.005 0.005 0.005 0.005 0.005
          0.005 0.005 0.005 0.005 0.005 0.005
          0.005 0.005 0.005 0.005 0.005 0.005
          0.005 0.005 0.005 0.004 0.00400131 0.00405629
          0.00425026 0.00455339 0.0041256 0.00412697 0.00477558 0.00485192
          0.00471408 0.00433711 0.00553325 0.00580195 0.00493433 0.00491017
          0.00406894 0.00537406 0.00402538 0.00436738 0.00444148 0.00564967
          0.00486136 0.00576995 0.00482981 0.00548053 0.00426806 0.00567729
          0.00493952 0.00410505 0.00549268 0.00595501 0.00416428 0.00569775
          0.00541634 0.00413924 0.0043689 0.00402663 0.00457732 0.00516991
          0.00517447 0.00533976 0.00400832 0.00505137 0.00417604 0.00503683
          0.00538341 0.0042652 0.00479371 0.00481831 0.00447084 0.00522126
          0.00455797 0.00565055 0.00456446 0.00484898 0.00466533 0.00488349
          0.00514575 0.00424199 0.00553194 0.00561247 0.00537929 0.00407136
          0.00590182 0.0045016 0.00411254 0.00439611 0.00410153 0.00516401
          0.00547985 0.00473226 0.00493662 0.00482354 0.00497205 0.00530682
          0.00563827 0.00495452 0.00589595 0.00450033 0.00460269 0.00425069
          0.00415494 0.00558836 0.00548239 0.00586765 0.00572596 0.00419421
          0.00518625 0.0041768 0.00400546 0.00400067 0.00427495 0.00497261
          0.00457136 0.00403604 0.00473329 0.00541845 0.0046916 0.00442462
          0.00559011 0.00485039 0.00528266 0.00438968 0.0054139 0.00473942
          0.00428112 0.00470068 0.00528271 0.00589997 0.0053496 0.0047357
          0.00563107 0.00418708 0.00557117 0.00402426 0.00582766 0.0051504
          0.00545447 0.00420053 0.00502189 0.00573691 0.00539184 0.00455592
          0.00583739 0.00567328 0.00469699 0.00422986 0.00465986 0.00476163
          0.00404194 0.00501762 0.00543543 0.00425909 0.00484872 0.00571091
          0.00445896 0.00583268 0.00459422 0.00579854 0.00574543 0.00450741
          0.00486384 0.00522211 0.00591427 0.00537655 0.00533794 0.00412494
          0.00559171 0.00424725 0.00402654 0.00464946 0.00443848 0.00457706
          0.00464885 0.00419353 0.00458163 0.00444408 0.00402821 0.00434594
          0.0040501 0.00431819 0.00484934 0.00478951 0.00566712 0.00539042
          0.00408025 0.00416638 0.00489357 0.00451453 0.00471849 0.00497538
          0.00496925 0.00409546 0.00550189 0.004621 0.00496994 0.00427223
          0.00569335 0.00424979 0.00429754 0.00416052 0.00422374 0.00597801
          0.00517592 0.00548395 0.00508952 0.00449328 0.00530399 0.0055134
          0.00526607 0.00512379 0.00454335 0.00502169 0.00464217 0.00549188
          0.00539075 0.00440256 0.00406056 0.00500217 0.00482721 0.00506375
          0.00425667 0.00440933 0.00471048 0.00509119 0.0053164 0.00463975
          0.00503789 0.0050384 0.00559294 0.00425752 0.00445753 0.00403135
          0.00401228 0.00585781 0.00597239 0.00429329 0.00500854 0.00581297
          0.00491716 0.0048917 0.0046859 0.00470542 0.00445567 0.00428696
          0.00431003 0.00406765 0.0043004 0.00494756 0.0057549 0.00464326
          0.00511544 0.00453806 0.00497245 0.00460113 0.00404565 0.00442073
          0.00412599 0.00469554 0.00578574 0.00577279 0.00501238 0.00561048
          0.00401972 0.0051874 0.00556733 0.00418067 0.00408116 0.00401751
          0.00459974 0.00562239 0.00402018 0.00578115 0.00567837 0.00513274
          0.00511708 0.00410444 0.00412793 0.00400434 0.00485176 0.00542927
          0.00511513 0.00488976 0.00545055 0.00527879 0.0043689 0.00437198
          0.00419339 0.00476748 0.00473856 0.00413918 0.0048081 0.00560327
          0.00401344 0.00550856 0.00589483 0.00402612 0.00579604 0.00408591
          0.00405127 0.00427085 0.00440636 0.00470093 0.00510504 0.00421219
          0.00477546 0.00510564 0.00486673 0.00453996 0.00460496 0.00526776
          0.00527403 0.00445458 0.00414734 0.00574377 0.00531188 0.00434634
          0.0051093 0.00455998 0.00403522 0.00557947 0.00405654 0.00407625
          0.00466207 0.0047614 0.00480326 0.00594214 0.00501568 0.00574893
          0.00533432 0.00524891 0.00591463 0.00403933 0.00438643 0.00402456
          0.00411054 0.00421739 0.00415851 0.00534887 0.00582029 0.00417944
          0.00498465 0.00417032 0.00499829 0.0040898 0.00437322 0.00463759
          0.00584906 0.00453428 0.00402279 0.00592132 0.00536279 0.00561266
          0.00462451 0.00562817 0.00404962 0.00429873 0.00465718 0.00595481
          0.00492682 0.00495103 0.00473975 0.00473216 0.00535982 0.00444788
          0.00464622 0.00413583 0.00419118 0.00521317 0.004256 0.00569551
          0.00528839 0.00444821 0.00419759 0.00551496 0.00469154 0.00497949
          0.00593361 0.00480517 0.00570792 0.00527428 0.00438161 0.00471519
          0.00438269 0.00588376 0.0040227 0.00582648 0.00571963 0.0041349
          0.0048409 0.00411622 0.00544317 0.00563092 0.00413192 0.0056611
          0.00400802 0.0042888 0.00474804 0.00509388 0.00580823 0.00413569
          0.0049401 0.0048146 0.00512697 0.00569507 0.00529978 0.00519312
          0.0054778 0.00434847 0.00536556 0.0053781 0.00488273 0.00476389
          0.00464105 0.00410056 0.00485181 0.00481468 0.00533712 0.00418278
          0.00401254 0.00536666 0.00413963 0.00589764 0.00412264 0.00416077
          0.00570416 0.00532209 0.00431427 0.00496989 0.00434908 0.00567231
          0.00460846 0.00407678 0.00578932 0.00471035 0.00563587 0.00433249
          0.0047789 0.00494082 0.00558891 0.00431401 0.00577065 0.00405217
          0.00463033 0.00407307 0.00414531 0.00485787 0.00494428 0.00415872
          0.00405757 0.00480173 0.00527414 0.00478895 0.00452162 0.00404732
          0.00455668 0.00575705 0.00480948 0.00561211 0.00577906 0.00402057
          0.00442798 0.00434681 0.005255 0.00414018 0.00539903 0.00435518
          0.00467228 0.00498256 0.00482803
        </DataArray>
      </PointData>
      <CellData>
      </CellData>
      <Points>
        <DataArray type="Float32" Name="Points" NumberOfComponents="3" format="ascii" RangeMin="0.48846697776" RangeMax="1.0545644928">
          0.44999998808 0.18999999762 0 0.46000000834 0.18999999762 0
          0.46999999881 0.18999999762 0 0.47999998927 0.18999999762 0
          0.49000000954 0.18999999762 0 0.5 0.18999999762 0
          0.50999999046 0.18999999762 0 0.51999998093 0.18999999762 0
          0.52999997139 0.18999999762 0 0.54000002146 0.18999999762 0
          0.55000001192 0.18999999762 0 0.55250000954 0.20000000298 0
          0.44749999046 0.20000000298 0 0.55750000477 0.20999999344 0
          0.44249999523 0.20999999344 0 0.5625 0.21999999881 0
          0.4375 0.21999999881 0 0.56749999523 0.23000000417 0
          0.43250000477 0.23000000417 0 0.57249999046 0.23999999464 0
          0.42750000954 0.23999999464 0 0.57749998569 0.25 0
          0.42250001431 0.25 0 0.58249998093 0.25999999046 0
          0.41749998927 0.25999999046 0 0.58749997616 0.27000001073 0
          0.41249999404 0.27000001073 0 0.59249997139 0.28000000119 0
          0.40749999881 0.28000000119 0 0.59750002623 0.28999999166 0
          0.40250000358 0.28999999166 0 0.60250002146 0.30000001192 0
          0.39750000834 0.30000001192 0 0.60750001669 0.31000000238 0
          0.39250001311 0.31000000238 0 0.61250001192 0.31999999285 0
          0.38749998808 0.31999999285 0 0.61750000715 0.33000001311 0
          0.38249999285 0.33000001311 0 0.62250000238 0.34000000358 0
          0.37749999762 0.34000000358 0 0.62749999762 0.34999999404 0
          0.37250000238 0.34999999404 0 0.63249999285 0.36000001431 0
          0.36750000715 0.36000001431 0 0.63749998808 0.37000000477 0
          0.36250001192 0.37000000477 0 0.64249998331 0.37999999523 0
          0.35749998689 0.37999999523 0 0.64749997854 0.38999998569 0
          0.35249999166 0.38999998569 0 0.65249997377 0.40000000596 0
          0.34749999642 0.40000000596 0 0.65750002861 0.40999999642 0
          0.34250000119 0.40999999642 0 0.66250002384 0.41999998689 0
          0.33750000596 0.41999998689 0 0.66750001907 0.43000000715 0
          0.33250001073 0.43000000715 0 0.67250001431 0.43999999762 0
          0.32749998569 0.43999999762 0 0.67750000954 0.44999998808 0
          0.32249999046 0.44999998808 0 0.68250000477 0.46000000834 0
          0.31749999523 0.46000000834 0 0.6875 0.46999999881 0
          0.3125 0.46999999881 0 0.69249999523 0.47999998927 0
          0.30750000477 0.47999998927 0 0.69749999046 0.49000000954 0
          0.30250000954 0.49000000954 0 0.70249998569 0.5 0
          0.29750001431 0.5 0 0.70749998093 0.50999999046 0
          0.29249998927 0.50999999046 0 0.71249997616 0.51999998093 0
          0.28749999404 0.51999998093 0 0.71749997139 0.52999997139 0
          0.28249999881 0.52999997139 0 0.72250002623 0.54000002146 0
          0.27750000358 0.54000002146 0 0.72750002146 0.55000001192 0
          0.27250000834 0.55000001192 0 0.73250001669 0.56000000238 0
          0.26750001311 0.56000000238 0 0.73750001192 0.56999999285 0
          0.26249998808 0.56999999285 0 0.74250000715 0.57999998331 0
          0.25749999285 0.57999998331 0 0.74750000238 0.58999997377 0
          0.25249999762 0.58999997377 0 0.75249999762 0.60000002384 0
          0.24750000238 0.60000002384 0 0.75749999285 0.61000001431 0
          0.24250000715 0.61000001431 0 0.76249998808 0.62000000477 0
          0.23749999702 0.62000000477 0 0.76749998331 0.62999999523 0
          0.23250000179 0.62999999523 0 0.77249997854 0.63999998569 0
          0.22750000656 0.63999998569 0 0.77749997377 0.64999997616 0
          0.22249999642 0.64999997616 0 0.78250002861 0.66000002623 0
          0.21750000119 0.66000002623 0 0.78750002384 0.67000001669 0
          0.21250000596 0.67000001669 0 0.79250001907 0.68000000715 0
          0.20749999583 0.68000000715 0 0.79750001431 0.68999999762 0
          0.2025000006 0.68999999762 0 0.31150001287 0.60000002384 0
          0.31150001287 0.61299997568 0 0.31150001287 0.62599998713 0
          0.31150001287 0.63899999857 0 0.31150001287 0.65200001001 0
          0.31150001287 0.66500002146 0 0.31150001287 0.6779999733 0
          0.31150001287 0.69099998474 0 0.31150001287 0.70399999619 0
          0.31150001287 0.71700000763 0 0.31150001287 0.73000001907 0
          0.31150001287 0.74299997091 0 0.31150001287 0.75599998236 0
          0.31150001287 0.7689999938 0 0.31150001287 0.78200000525 0
          0.32449999452 0.60000002384 0 0.32449999452 0.61299997568 0
          0.32449999452 0.62599998713 0 0.32449999452 0.63899999857 0
          0.32449999452 0.65200001001 0 0.32449999452 0.66500002146 0
          0.32449999452 0.6779999733 0 0.32449999452 0.69099998474 0
          0.32449999452 0.70399999619 0 0.32449999452 0.71700000763 0
          0.32449999452 0.73000001907 0 0.32449999452 0.74299997091 0
          0.32449999452 0.75599998236 0 0.32449999452 0.7689999938 0
          0.32449999452 0.78200000525 0 0.33750000596 0.60000002384 0
          0.33750000596 0.61299997568 0 0.33750000596 0.62599998713 0
          0.33750000596 0.63899999857 0 0.33750000596 0.65200001001 0
          0.33750000596 0.66500002146 0 0.33750000596 0.6779999733 0
          0.33750000596 0.69099998474 0 0.33750000596 0.70399999619 0
          0.33750000596 0.71700000763 0 0.33750000596 0.73000001907 0
          0.33750000596 0.74299997091 0 0.33750000596 0.75599998236 0
          0.33750000596 0.7689999938 0 0.33750000596 0.78200000525 0
          0.3504999876 0.60000002384 0 0.3504999876 0.61299997568 0
          0.3504999876 0.62599998713 0 0.3504999876 0.63899999857 0
          0.3504999876 0.65200001001 0 0.3504999876 0.66500002146 0
          0.3504999876 0.6779999733 0 0.3504999876 0.69099998474 0
          0.3504999876 0.70399999619 0 0.3504999876 0.71700000763 0
          0.3504999876 0.73000001907 0 0.3504999876 0.74299997091 0
          0.3504999876 0.75599998236 0 0.3504999876 0.7689999938 0
          0.3504999876 0.78200000525 0 0.36349999905 0.60000002384 0
          0.36349999905 0.61299997568 0 0.36349999905 0.62599998713 0
          0.36349999905 0.63899999857 0 0.36349999905 0.65200001001 0
          0.36349999905 0.66500002146 0 0.36349999905 0.6779999733 0
          0.36349999905 0.69099998474 0 0.36349999905 0.70399999619 0
          0.36349999905 0.71700000763 0 0.36349999905 0.73000001907 0
          0.36349999905 0.74299997091 0 0.36349999905 0.75599998236 0
          0.36349999905 0.7689999938 0 0.36349999905 0.78200000525 0
          0.37650001049 0.60000002384 0 0.37650001049 0.61299997568 0
          0.37650001049 0.62599998713 0 0.37650001049 0.63899999857 0
          0.37650001049 0.65200001001 0 0.37650001049 0.66500002146 0
          0.37650001049 0.6779999733 0 0.37650001049 0.69099998474 0
          0.37650001049 0.70399999619 0 0.37650001049 0.71700000763 0
          0.37650001049 0.73000001907 0 0.37650001049 0.74299997091 0
          0.37650001049 0.75599998236 0 0.37650001049 0.7689999938 0
          0.37650001049 0.78200000525 0 0.38949999213 0.60000002384 0
          0.38949999213 0.61299997568 0 0.38949999213 0.62599998713 0
          0.38949999213 0.63899999857 0 0.38949999213 0.65200001001 0
          0.38949999213 0.66500002146 0 0.38949999213 0.6779999733 0
          0.38949999213 0.69099998474 0 0.38949999213 0.70399999619 0
          0.38949999213 0.71700000763 0 0.38949999213 0.73000001907 0
          0.38949999213 0.74299997091 0 0.38949999213 0.75599998236 0
          0.38949999213 0.7689999938 0 0.38949999213 0.78200000525 0
          0.40250000358 0.60000002384 0 0.40250000358 0.61299997568 0
          0.40250000358 0.62599998713 0 0.40250000358 0.63899999857 0
          0.40250000358 0.65200001001 0 0.40250000358 0.66500002146 0
          0.40250000358 0.6779999733 0 0.40250000358 0.69099998474 0
          0.40250000358 0.70399999619 0 0.40250000358 0.71700000763 0
          0.40250000358 0.73000001907 0 0.40250000358 0.74299997091 0
          0.40250000358 0.75599998236 0 0.40250000358 0.7689999938 0
          0.40250000358 0.78200000525 0 0.41549998522 0.60000002384 0
          0.41549998522 0.61299997568 0 0.41549998522 0.62599998713 0
          0.41549998522 0.63899999857 0 0.41549998522 0.65200001001 0
          0.41549998522 0.66500002146 0 0.41549998522 0.6779999733 0
          0.41549998522 0.69099998474 0 0.41549998522 0.70399999619 0
          0.41549998522 0.71700000763 0 0.41549998522 0.73000001907 0
          0.41549998522 0.74299997091 0 0.41549998522 0.75599998236 0
          0.41549998522 0.7689999938 0 0.41549998522 0.78200000525 0
          0.42849999666 0.60000002384 0 0.42849999666 0.61299997568 0
          0.42849999666 0.62599998713 0 0.42849999666 0.63899999857 0
          0.42849999666 0.65200001001 0 0.42849999666 0.66500002146 0
          0.42849999666 0.6779999733 0 0.42849999666 0.69099998474 0
          0.42849999666 0.70399999619 0 0.42849999666 0.71700000763 0
          0.42849999666 0.73000001907 0 0.42849999666 0.74299997091 0
          0.42849999666 0.75599998236 0 0.42849999666 0.7689999938 0
          0.42849999666 0.78200000525 0 0.44150000811 0.60000002384 0
          0.44150000811 0.61299997568 0 0.44150000811 0.62599998713 0
          0.44150000811 0.63899999857 0 0.44150000811 0.65200001001 0
          0.44150000811 0.66500002146 0 0.44150000811 0.6779999733 0
          0.44150000811 0.69099998474 0 0.44150000811 0.70399999619 0
          0.44150000811 0.71700000763 0 0.44150000811 0.73000001907 0
          0.44150000811 0.74299997091 0 0.44150000811 0.75599998236 0
          0.44150000811 0.7689999938 0 0.44150000811 0.78200000525 0
          0.45449998975 0.60000002384 0 0.45449998975 0.61299997568 0
          0.45449998975 0.62599998713 0 0.45449998975 0.63899999857 0
          0.45449998975 0.65200001001 0 0.45449998975 0.66500002146 0
          0.45449998975 0.6779999733 0 0.45449998975 0.69099998474 0
          0.45449998975 0.70399999619 0 0.45449998975 0.71700000763 0
          0.45449998975 0.73000001907 0 0.45449998975 0.74299997091 0
          0.45449998975 0.75599998236 0 0.45449998975 0.7689999938 0
          0.45449998975 0.78200000525 0 0.46750000119 0.60000002384 0
          0.46750000119 0.61299997568 0 0.46750000119 0.62599998713 0
          0.46750000119 0.63899999857 0 0.46750000119 0.65200001001 0
          0.46750000119 0.66500002146 0 0.46750000119 0.6779999733 0
          0.46750000119 0.69099998474 0 0.46750000119 0.70399999619 0
          0.46750000119 0.71700000763 0 0.46750000119 0.73000001907 0
          0.46750000119 0.74299997091 0 0.46750000119 0.75599998236 0
          0.46750000119 0.7689999938 0 0.46750000119 0.78200000525 0
          0.48050001264 0.60000002384 0 0.48050001264 0.61299997568 0
          0.48050001264 0.62599998713 0 0.48050001264 0.63899999857 0
          0.48050001264 0.65200001001 0 0.48050001264 0.66500002146 0
          0.48050001264 0.6779999733 0 0.48050001264 0.69099998474 0
          0.48050001264 0.70399999619 0 0.48050001264 0.71700000763 0
          0.48050001264 0.73000001907 0 0.48050001264 0.74299997091 0
          0.48050001264 0.75599998236 0 0.48050001264 0.7689999938 0
          0.48050001264 0.78200000525 0 0.49349999428 0.60000002384 0
          0.49349999428 0.61299997568 0 0.49349999428 0.62599998713 0
          0.49349999428 0.63899999857 0 0.49349999428 0.65200001001 0
          0.49349999428 0.66500002146 0 0.49349999428 0.6779999733 0
          0.49349999428 0.69099998474 0 0.49349999428 0.70399999619 0
          0.49349999428 0.71700000763 0 0.49349999428 0.73000001907 0
          0.49349999428 0.74299997091 0 0.49349999428 0.75599998236 0
          0.49349999428 0.7689999938 0 0.49349999428 0.78200000525 0
          0.50650000572 0.60000002384 0 0.50650000572 0.61299997568 0
          0.50650000572 0.62599998713 0 0.50650000572 0.63899999857 0
          0.50650000572 0.65200001001 0 0.50650000572 0.66500002146 0
          0.50650000572 0.6779999733 0 0.50650000572 0.69099998474 0
          0.50650000572 0.70399999619 0 0.50650000572 0.71700000763 0
          0.50650000572 0.73000001907 0 0.50650000572 0.74299997091 0
          0.50650000572 0.75599998236 0 0.50650000572 0.7689999938 0
          0.50650000572 0.78200000525 0 0.51950001717 0.60000002384 0
          0.51950001717 0.61299997568 0 0.51950001717 0.62599998713 0
          0.51950001717 0.63899999857 0 0.51950001717 0.65200001001 0
          0.51950001717 0.66500002146 0 0.51950001717 0.6779999733 0
          0.51950001717 0.69099998474 0 0.51950001717 0.70399999619 0
          0.51950001717 0.71700000763 0 0.51950001717 0.73000001907 0
          0.51950001717 0.74299997091 0 0.51950001717 0.75599998236 0
          0.51950001717 0.7689999938 0 0.51950001717 0.78200000525 0
          0.53250002861 0.60000002384 0 0.53250002861 0.61299997568 0
          0.53250002861 0.62599998713 0 0.53250002861 0.63899999857 0
          0.53250002861 0.65200001001 0 0.53250002861 0.66500002146 0
          0.53250002861 0.6779999733 0 0.53250002861 0.69099998474 0
          0.53250002861 0.70399999619 0 0.53250002861 0.71700000763 0
          0.53250002861 0.73000001907 0 0.53250002861 0.74299997091 0
          0.53250002861 0.75599998236 0 0.53250002861 0.7689999938 0
          0.53250002861 0.78200000525 0 0.54549998045 0.60000002384 0
          0.54549998045 0.61299997568 0 0.54549998045 0.62599998713 0
          0.54549998045 0.63899999857 0 0.54549998045 0.65200001001 0
          0.54549998045 0.66500002146 0 0.54549998045 0.6779999733 0
          0.54549998045 0.69099998474 0 0.54549998045 0.70399999619 0
          0.54549998045 0.71700000763 0 0.54549998045 0.73000001907 0
          0.54549998045 0.74299997091 0 0.54549998045 0.75599998236 0
          0.54549998045 0.7689999938 0 0.54549998045 0.78200000525 0
          0.55849999189 0.60000002384 0 0.55849999189 0.61299997568 0
          0.55849999189 0.62599998713 0 0.55849999189 0.63899999857 0
          0.55849999189 0.65200001001 0 0.55849999189 0.66500002146 0
          0.55849999189 0.6779999733 0 0.55849999189 0.69099998474 0
          0.55849999189 0.70399999619 0 0.55849999189 0.71700000763 0
          0.55849999189 0.73000001907 0 0.55849999189 0.74299997091 0
          0.55849999189 0.75599998236 0 0.55849999189 0.7689999938 0
          0.55849999189 0.78200000525 0 0.57150000334 0.60000002384 0
          0.57150000334 0.61299997568 0 0.57150000334 0.62599998713 0
          0.57150000334 0.63899999857 0 0.57150000334 0.65200001001 0
          0.57150000334 0.66500002146 0 0.57150000334 0.6779999733 0
          0.57150000334 0.69099998474 0 0.57150000334 0.70399999619 0
          0.57150000334 0.71700000763 0 0.57150000334 0.73000001907 0
          0.57150000334 0.74299997091 0 0.57150000334 0.75599998236 0
          0.57150000334 0.7689999938 0 0.57150000334 0.78200000525 0
          0.58450001478 0.60000002384 0 0.58450001478 0.61299997568 0
          0.58450001478 0.62599998713 0 0.58450001478 0.63899999857 0
          0.58450001478 0.65200001001 0 0.58450001478 0.66500002146 0
          0.58450001478 0.6779999733 0 0.58450001478 0.69099998474 0
          0.58450001478 0.70399999619 0 0.58450001478 0.71700000763 0
          0.58450001478 0.73000001907 0 0.58450001478 0.74299997091 0
          0.58450001478 0.75599998236 0 0.58450001478 0.7689999938 0
          0.58450001478 0.78200000525 0 0.59750002623 0.60000002384 0
          0.59750002623 0.61299997568 0 0.59750002623 0.62599998713 0
          0.59750002623 0.63899999857 0 0.59750002623 0.65200001001 0
          0.59750002623 0.66500002146 0 0.59750002623 0.6779999733 0
          0.59750002623 0.69099998474 0 0.59750002623 0.70399999619 0
          0.59750002623 0.71700000763 0 0.59750002623 0.73000001907 0
          0.59750002623 0.74299997091 0 0.59750002623 0.75599998236 0
          0.59750002623 0.7689999938 0 0.59750002623 0.78200000525 0
          0.61049997807 0.60000002384 0 0.61049997807 0.61299997568 0
          0.61049997807 0.62599998713 0 0.61049997807 0.63899999857 0
          0.61049997807 0.65200001001 0 0.61049997807 0.66500002146 0
          0.61049997807 0.6779999733 0 0.61049997807 0.69099998474 0
          0.61049997807 0.70399999619 0 0.61049997807 0.71700000763 0
          0.61049997807 0.73000001907 0 0.61049997807 0.74299997091 0
          0.61049997807 0.75599998236 0 0.61049997807 0.7689999938 0
          0.61049997807 0.78200000525 0 0.62349998951 0.60000002384 0
          0.62349998951 0.61299997568 0 0.62349998951 0.62599998713 0
          0.62349998951 0.63899999857 0 0.62349998951 0.65200001001 0
          0.62349998951 0.66500002146 0 0.62349998951 0.6779999733 0
          0.62349998951 0.69099998474 0 0.62349998951 0.70399999619 0
          0.62349998951 0.71700000763 0 0.62349998951 0.73000001907 0
          0.62349998951 0.74299997091 0 0.62349998951 0.75599998236 0
          0.62349998951 0.7689999938 0 0.62349998951 0.78200000525 0
          0.63650000095 0.60000002384 0 0.63650000095 0.61299997568 0
          0.63650000095 0.62599998713 0 0.63650000095 0.63899999857 0
          0.63650000095 0.65200001001 0 0.63650000095 0.66500002146 0
          0.63650000095 0.6779999733 0 0.63650000095 0.69099998474 0
          0.63650000095 0.70399999619 0 0.63650000095 0.71700000763 0
          0.63650000095 0.73000001907 0 0.63650000095 0.74299997091 0
          0.63650000095 0.75599998236 0 0.63650000095 0.7689999938 0
          0.63650000095 0.78200000525 0 0.6495000124 0.60000002384 0
          0.6495000124 0.61299997568 0 0.6495000124 0.62599998713 0
          0.6495000124 0.63899999857 0 0.6495000124 0.65200001001 0
          0.6495000124 0.66500002146 0 0.6495000124 0.6779999733 0
          0.6495000124 0.69099998474 0 0.6495000124 0.70399999619 0
          0.6495000124 0.71700000763 0 0.6495000124 0.73000001907 0
          0.6495000124 0.74299997091 0 0.6495000124 0.75599998236 0
          0.6495000124 0.7689999938 0 0.6495000124 0.78200000525 0
          0.66250002384 0.60000002384 0 0.66250002384 0.61299997568 0
          0.66250002384 0.62599998713 0 0.66250002384 0.63899999857 0
          0.66250002384 0.65200001001 0 0.66250002384 0.66500002146 0
          0.66250002384 0.6779999733 0 0.66250002384 0.69099998474 0
          0.66250002384 0.70399999619 0 0.66250002384 0.71700000763 0
          0.66250002384 0.73000001907 0 0.66250002384 0.74299997091 0
          0.66250002384 0.75599998236 0 0.66250002384 0.7689999938 0
          0.66250002384 0.78200000525 0 0.67549997568 0.60000002384 0
          0.67549997568 0.61299997568 0 0.67549997568 0.62599998713 0
          0.67549997568 0.63899999857 0 0.67549997568 0.65200001001 0
          0.67549997568 0.66500002146 0 0.67549997568 0.6779999733 0
          0.67549997568 0.69099998474 0 0.67549997568 0.70399999619 0
          0.67549997568 0.71700000763 0 0.67549997568 0.73000001907 0
          0.67549997568 0.74299997091 0 0.67549997568 0.75599998236 0
          0.67549997568 0.7689999938 0 0.67549997568 0.78200000525 0
          0.68849998713 0.60000002384 0 0.68849998713 0.61299997568 0
          0.68849998713 0.62599998713 0 0.68849998713 0.63899999857 0
          0.68849998713 0.65200001001 0 0.68849998713 0.66500002146 0
          0.68849998713 0.6779999733 0 0.68849998713 0.69099998474 0
          0.68849998713 0.70399999619 0 0.68849998713 0.71700000763 0
          0.68849998713 0.73000001907 0 0.68849998713 0.74299997091 0
          0.68849998713 0.75599998236 0 0.68849998713 0.7689999938 0
          0.68849998713 0.78200000525 0
        </DataArray>
      </Points>
      <Verts>
        <DataArray type="Int64" Name="connectivity" format="ascii" RangeMin="1e+299" RangeMax="-1e+299">
        </DataArray>
        <DataArray type="Int64" Name="offsets" format="ascii" RangeMin="1e+299" RangeMax="-1e+299">
        </DataArray>
      </Verts>
      <Lines>
        <DataArray type="Int64" Name="connectivity" format="ascii" RangeMin="1e+299" RangeMax="-1e+299">
        </DataArray>
        <DataArray type="Int64" Name="offsets" format="ascii" RangeMin="1e+299" RangeMax="-1e+299">
        </DataArray>
      </Lines>
      <Strips>
        <DataArray type="Int64" Name="connectivity" format="ascii" RangeMin="1e+299" RangeMax="-1e+299">
        </DataArray>
        <DataArray type="Int64" Name="offsets" format="ascii" RangeMin="1e+299" RangeMax="-1e+299">
        </DataArray>
      </Strips>
      <Polys>
        <DataArray type="Int64" Name="connectivity" format="ascii" RangeMin="1e+299" RangeMax="-1e+299">
        </DataArray>
        <DataArray type="Int64" Name="offsets" format="ascii" RangeMin="1e+299" RangeMax="-1e+299">
        </DataArray>
      </Polys>
    </Piece>
  </PolyData>
</VTKFile>
